!2-port S-parameter file
!Title: test for scattering parameters
!Generated by ngspice at Mon Jun 12 12:15:32  2017
# Hz S RI R 50
!freq            ReS11           ImS11           ReS21           ImS21           ReS12           ImS12           ReS22           ImS22         
 2.500000e+07  -1.358762e-03  -1.726349e-02   9.966563e-01  -7.959753e-02   6.953303e-01  -7.052862e-01  -9.816184e-02  -9.679587e-02  
